# vtk DataFile Version 3.0
Mesh_1
ASCII
DATASET UNSTRUCTURED_GRID
POINTS 4540 float
-50 -50 0
-50 50 0
50 -50 0
50 50 0
-50 -48.75 0
-50 -47.5 0
-50 -46.25 0
-50 -45 0
-50 -43.75 0
-50 -42.5 0
-50 -41.25 0
-50 -40 0
-50 -38.75 0
-50 -37.5 0
-50 -36.25 0
-50 -35 0
-50 -33.75 0
-50 -32.5 0
-50 -31.25 0
-50 -30 0
-50 -28.75 0
-50 26.25 0
-50 27.5 0
-50 28.75 0
-50 30 0
-50 31.25 0
-50 32.5 0
-50 33.75 0
-50 35 0
-50 36.25 0
-50 37.5 0
-50 38.75 0
-50 40 0
-50 41.25 0
-50 42.5 0
-50 43.75 0
-50 45 0
-50 46.25 0
-50 47.5 0
-50 48.75 0
-48.75 -50 0
-47.5 -50 0
-46.25 -50 0
-45 -50 0
-43.75 -50 0
-42.5 -50 0
-41.25 -50 0
-40 -50 0
-38.75 -50 0
-37.5 -50 0
-36.25 -50 0
-35 -50 0
-33.75 -50 0
-32.5 -50 0
-31.25 -50 0
-30 -50 0
-28.75 -50 0
-27.5 -50 0
-26.25 -50 0
-25 -50 0
-23.75 -50 0
-22.5 -50 0
-21.25 -50 0
-20 -50 0
-18.75 -50 0
-17.5 -50 0
-16.25 -50 0
-15 -50 0
-13.75 -50 0
-12.5 -50 0
-11.25 -50 0
-10 -50 0
-8.75 -50 0
-7.5 -50 0
-6.25 -50 0
-5 -50 0
-3.75 -50 0
-2.5 -50 0
-1.25 -50 0
0 -50 0
1.25 -50 0
2.5 -50 0
3.75 -50 0
5 -50 0
6.25 -50 0
7.5 -50 0
8.75 -50 0
10 -50 0
11.25 -50 0
12.5 -50 0
13.75 -50 0
15 -50 0
16.25 -50 0
17.5 -50 0
18.75 -50 0
20 -50 0
21.25 -50 0
22.5 -50 0
23.75 -50 0
25 -50 0
26.25 -50 0
27.5 -50 0
28.75 -50 0
30 -50 0
31.25 -50 0
32.5 -50 0
33.75 -50 0
35 -50 0
36.25 -50 0
37.5 -50 0
38.75 -50 0
40 -50 0
41.25 -50 0
42.5 -50 0
43.75 -50 0
45 -50 0
46.25 -50 0
47.5 -50 0
48.75 -50 0
50 -48.75 0
50 -47.5 0
50 -46.25 0
50 -45 0
50 -43.75 0
50 -42.5 0
50 -41.25 0
50 -40 0
50 -38.75 0
50 -37.5 0
50 -36.25 0
50 -35 0
50 -33.75 0
50 -32.5 0
50 -31.25 0
50 -30 0
50 -28.75 0
50 26.25 0
50 27.5 0
50 28.75 0
50 30 0
50 31.25 0
50 32.5 0
50 33.75 0
50 35 0
50 36.25 0
50 37.5 0
50 38.75 0
50 40 0
50 41.25 0
50 42.5 0
50 43.75 0
50 45 0
50 46.25 0
50 47.5 0
50 48.75 0
-48.75 50 0
-47.5 50 0
-46.25 50 0
-45 50 0
-43.75 50 0
-42.5 50 0
-41.25 50 0
-40 50 0
-38.75 50 0
-37.5 50 0
-36.25 50 0
-35 50 0
-33.75 50 0
-32.5 50 0
-31.25 50 0
-30 50 0
-28.75 50 0
-27.5 50 0
-26.25 50 0
-25 50 0
-23.75 50 0
-22.5 50 0
-21.25 50 0
-20 50 0
-18.75 50 0
-17.5 50 0
-16.25 50 0
-15 50 0
-13.75 50 0
-12.5 50 0
-11.25 50 0
-10 50 0
-8.75 50 0
-7.5 50 0
-6.25 50 0
-5 50 0
-3.75 50 0
-2.5 50 0
-1.25 50 0
0 50 0
1.25 50 0
2.5 50 0
3.75 50 0
5 50 0
6.25 50 0
7.5 50 0
8.75 50 0
10 50 0
11.25 50 0
12.5 50 0
13.75 50 0
15 50 0
16.25 50 0
17.5 50 0
18.75 50 0
20 50 0
21.25 50 0
22.5 50 0
23.75 50 0
25 50 0
26.25 50 0
27.5 50 0
28.75 50 0
30 50 0
31.25 50 0
32.5 50 0
33.75 50 0
35 50 0
36.25 50 0
37.5 50 0
38.75 50 0
40 50 0
41.25 50 0
42.5 50 0
43.75 50 0
45 50 0
46.25 50 0
47.5 50 0
48.75 50 0
-48.75 48.75 0
-47.5 48.75 0
-46.25 48.75 0
-45 48.75 0
-43.75 48.75 0
-42.5 48.75 0
-41.25 48.75 0
-40 48.75 0
-38.75 48.75 0
-37.5 48.75 0
-36.25 48.75 0
-35 48.75 0
-33.75 48.75 0
-32.5 48.75 0
-31.25 48.75 0
-30 48.75 0
-28.75 48.75 0
-27.5 48.75 0
-26.25 48.75 0
-25 48.75 0
-23.75 48.75 0
-22.5 48.75 0
-21.25 48.75 0
-20 48.75 0
-18.75 48.75 0
-17.5 48.75 0
-16.25 48.75 0
-15 48.75 0
-13.75 48.75 0
-12.5 48.75 0
-11.25 48.75 0
-10 48.75 0
-8.75 48.75 0
-7.5 48.75 0
-6.25 48.75 0
-5 48.75 0
-3.75 48.75 0
-2.5 48.75 0
-1.25 48.75 0
0 48.75 0
1.25 48.75 0
2.5 48.75 0
3.75 48.75 0
5 48.75 0
6.25 48.75 0
7.5 48.75 0
8.75 48.75 0
10 48.75 0
11.25 48.75 0
12.5 48.75 0
13.75 48.75 0
15 48.75 0
16.25 48.75 0
17.5 48.75 0
18.75 48.75 0
20 48.75 0
21.25 48.75 0
22.5 48.75 0
23.75 48.75 0
25 48.75 0
26.25 48.75 0
27.5 48.75 0
28.75 48.75 0
30 48.75 0
31.25 48.75 0
32.5 48.75 0
33.75 48.75 0
35 48.75 0
36.25 48.75 0
37.5 48.75 0
38.75 48.75 0
40 48.75 0
41.25 48.75 0
42.5 48.75 0
43.75 48.75 0
45 48.75 0
46.25 48.75 0
47.5 48.75 0
48.75 48.75 0
-48.75 47.5 0
-47.5 47.5 0
-46.25 47.5 0
-45 47.5 0
-43.75 47.5 0
-42.5 47.5 0
-41.25 47.5 0
-40 47.5 0
-38.75 47.5 0
-37.5 47.5 0
-36.25 47.5 0
-35 47.5 0
-33.75 47.5 0
-32.5 47.5 0
-31.25 47.5 0
-30 47.5 0
-28.75 47.5 0
-27.5 47.5 0
-26.25 47.5 0
-25 47.5 0
-23.75 47.5 0
-22.5 47.5 0
-21.25 47.5 0
-20 47.5 0
-18.75 47.5 0
-17.5 47.5 0
-16.25 47.5 0
-15 47.5 0
-13.75 47.5 0
-12.5 47.5 0
-11.25 47.5 0
-10 47.5 0
-8.75 47.5 0
-7.5 47.5 0
-6.25 47.5 0
-5 47.5 0
-3.75 47.5 0
-2.5 47.5 0
-1.25 47.5 0
0 47.5 0
1.25 47.5 0
2.5 47.5 0
3.75 47.5 0
5 47.5 0
6.25 47.5 0
7.5 47.5 0
8.75 47.5 0
10 47.5 0
11.25 47.5 0
12.5 47.5 0
13.75 47.5 0
15 47.5 0
16.25 47.5 0
17.5 47.5 0
18.75 47.5 0
20 47.5 0
21.25 47.5 0
22.5 47.5 0
23.75 47.5 0
25 47.5 0
26.25 47.5 0
27.5 47.5 0
28.75 47.5 0
30 47.5 0
31.25 47.5 0
32.5 47.5 0
33.75 47.5 0
35 47.5 0
36.25 47.5 0
37.5 47.5 0
38.75 47.5 0
40 47.5 0
41.25 47.5 0
42.5 47.5 0
43.75 47.5 0
45 47.5 0
46.25 47.5 0
47.5 47.5 0
48.75 47.5 0
-48.75 46.25 0
-47.5 46.25 0
-46.25 46.25 0
-45 46.25 0
-43.75 46.25 0
-42.5 46.25 0
-41.25 46.25 0
-40 46.25 0
-38.75 46.25 0
-37.5 46.25 0
-36.25 46.25 0
-35 46.25 0
-33.75 46.25 0
-32.5 46.25 0
-31.25 46.25 0
-30 46.25 0
-28.75 46.25 0
-27.5 46.25 0
-26.25 46.25 0
-25 46.25 0
-23.75 46.25 0
-22.5 46.25 0
-21.25 46.25 0
-20 46.25 0
-18.75 46.25 0
-17.5 46.25 0
-16.25 46.25 0
-15 46.25 0
-13.75 46.25 0
-12.5 46.25 0
-11.25 46.25 0
-10 46.25 0
-8.75 46.25 0
-7.5 46.25 0
-6.25 46.25 0
-5 46.25 0
-3.75 46.25 0
-2.5 46.25 0
-1.25 46.25 0
0 46.25 0
1.25 46.25 0
2.5 46.25 0
3.75 46.25 0
5 46.25 0
6.25 46.25 0
7.5 46.25 0
8.75 46.25 0
10 46.25 0
11.25 46.25 0
12.5 46.25 0
13.75 46.25 0
15 46.25 0
16.25 46.25 0
17.5 46.25 0
18.75 46.25 0
20 46.25 0
21.25 46.25 0
22.5 46.25 0
23.75 46.25 0
25 46.25 0
26.25 46.25 0
27.5 46.25 0
28.75 46.25 0
30 46.25 0
31.25 46.25 0
32.5 46.25 0
33.75 46.25 0
35 46.25 0
36.25 46.25 0
37.5 46.25 0
38.75 46.25 0
40 46.25 0
41.25 46.25 0
42.5 46.25 0
43.75 46.25 0
45 46.25 0
46.25 46.25 0
47.5 46.25 0
48.75 46.25 0
-48.75 45 0
-47.5 45 0
-46.25 45 0
-45 45 0
-43.75 45 0
-42.5 45 0
-41.25 45 0
-40 45 0
-38.75 45 0
-37.5 45 0
-36.25 45 0
-35 45 0
-33.75 45 0
-32.5 45 0
-31.25 45 0
-30 45 0
-28.75 45 0
-27.5 45 0
-26.25 45 0
-25 45 0
-23.75 45 0
-22.5 45 0
-21.25 45 0
-20 45 0
-18.75 45 0
-17.5 45 0
-16.25 45 0
-15 45 0
-13.75 45 0
-12.5 45 0
-11.25 45 0
-10 45 0
-8.75 45 0
-7.5 45 0
-6.25 45 0
-5 45 0
-3.75 45 0
-2.5 45 0
-1.25 45 0
0 45 0
1.25 45 0
2.5 45 0
3.75 45 0
5 45 0
6.25 45 0
7.5 45 0
8.75 45 0
10 45 0
11.25 45 0
12.5 45 0
13.75 45 0
15 45 0
16.25 45 0
17.5 45 0
18.75 45 0
20 45 0
21.25 45 0
22.5 45 0
23.75 45 0
25 45 0
26.25 45 0
27.5 45 0
28.75 45 0
30 45 0
31.25 45 0
32.5 45 0
33.75 45 0
35 45 0
36.25 45 0
37.5 45 0
38.75 45 0
40 45 0
41.25 45 0
42.5 45 0
43.75 45 0
45 45 0
46.25 45 0
47.5 45 0
48.75 45 0
-48.75 43.75 0
-47.5 43.75 0
-46.25 43.75 0
-45 43.75 0
-43.75 43.75 0
-42.5 43.75 0
-41.25 43.75 0
-40 43.75 0
-38.75 43.75 0
-37.5 43.75 0
-36.25 43.75 0
-35 43.75 0
-33.75 43.75 0
-32.5 43.75 0
-31.25 43.75 0
-30 43.75 0
-28.75 43.75 0
-27.5 43.75 0
-26.25 43.75 0
-25 43.75 0
-23.75 43.75 0
-22.5 43.75 0
-21.25 43.75 0
-20 43.75 0
-18.75 43.75 0
-17.5 43.75 0
-16.25 43.75 0
-15 43.75 0
-13.75 43.75 0
-12.5 43.75 0
-11.25 43.75 0
-10 43.75 0
-8.75 43.75 0
-7.5 43.75 0
-6.25 43.75 0
-5 43.75 0
-3.75 43.75 0
-2.5 43.75 0
-1.25 43.75 0
0 43.75 0
1.25 43.75 0
2.5 43.75 0
3.75 43.75 0
5 43.75 0
6.25 43.75 0
7.5 43.75 0
8.75 43.75 0
10 43.75 0
11.25 43.75 0
12.5 43.75 0
13.75 43.75 0
15 43.75 0
16.25 43.75 0
17.5 43.75 0
18.75 43.75 0
20 43.75 0
21.25 43.75 0
22.5 43.75 0
23.75 43.75 0
25 43.75 0
26.25 43.75 0
27.5 43.75 0
28.75 43.75 0
30 43.75 0
31.25 43.75 0
32.5 43.75 0
33.75 43.75 0
35 43.75 0
36.25 43.75 0
37.5 43.75 0
38.75 43.75 0
40 43.75 0
41.25 43.75 0
42.5 43.75 0
43.75 43.75 0
45 43.75 0
46.25 43.75 0
47.5 43.75 0
48.75 43.75 0
-48.75 42.5 0
-47.5 42.5 0
-46.25 42.5 0
-45 42.5 0
-43.75 42.5 0
-42.5 42.5 0
-41.25 42.5 0
-40 42.5 0
-38.75 42.5 0
-37.5 42.5 0
-36.25 42.5 0
-35 42.5 0
-33.75 42.5 0
-32.5 42.5 0
-31.25 42.5 0
-30 42.5 0
-28.75 42.5 0
-27.5 42.5 0
-26.25 42.5 0
-25 42.5 0
-23.75 42.5 0
-22.5 42.5 0
-21.25 42.5 0
-20 42.5 0
-18.75 42.5 0
-17.5 42.5 0
-16.25 42.5 0
-15 42.5 0
-13.75 42.5 0
-12.5 42.5 0
-11.25 42.5 0
-10 42.5 0
-8.75 42.5 0
-7.5 42.5 0
-6.25 42.5 0
-5 42.5 0
-3.75 42.5 0
-2.5 42.5 0
-1.25 42.5 0
0 42.5 0
1.25 42.5 0
2.5 42.5 0
3.75 42.5 0
5 42.5 0
6.25 42.5 0
7.5 42.5 0
8.75 42.5 0
10 42.5 0
11.25 42.5 0
12.5 42.5 0
13.75 42.5 0
15 42.5 0
16.25 42.5 0
17.5 42.5 0
18.75 42.5 0
20 42.5 0
21.25 42.5 0
22.5 42.5 0
23.75 42.5 0
25 42.5 0
26.25 42.5 0
27.5 42.5 0
28.75 42.5 0
30 42.5 0
31.25 42.5 0
32.5 42.5 0
33.75 42.5 0
35 42.5 0
36.25 42.5 0
37.5 42.5 0
38.75 42.5 0
40 42.5 0
41.25 42.5 0
42.5 42.5 0
43.75 42.5 0
45 42.5 0
46.25 42.5 0
47.5 42.5 0
48.75 42.5 0
-48.75 41.25 0
-47.5 41.25 0
-46.25 41.25 0
-45 41.25 0
-43.75 41.25 0
-42.5 41.25 0
-41.25 41.25 0
-40 41.25 0
-38.75 41.25 0
-37.5 41.25 0
-36.25 41.25 0
-35 41.25 0
-33.75 41.25 0
-32.5 41.25 0
-31.25 41.25 0
-30 41.25 0
-28.75 41.25 0
-27.5 41.25 0
-26.25 41.25 0
-25 41.25 0
-23.75 41.25 0
-22.5 41.25 0
-21.25 41.25 0
-20 41.25 0
-18.75 41.25 0
-17.5 41.25 0
-16.25 41.25 0
-15 41.25 0
-13.75 41.25 0
-12.5 41.25 0
-11.25 41.25 0
-10 41.25 0
-8.75 41.25 0
-7.5 41.25 0
-6.25 41.25 0
-5 41.25 0
-3.75 41.25 0
-2.5 41.25 0
-1.25 41.25 0
0 41.25 0
1.25 41.25 0
2.5 41.25 0
3.75 41.25 0
5 41.25 0
6.25 41.25 0
7.5 41.25 0
8.75 41.25 0
10 41.25 0
11.25 41.25 0
12.5 41.25 0
[...]
POINT_DATA 4540
SCALARS Temperature float 1
LOOKUP_TABLE default
50
300
50
300
150
150
150
150
150
150
150
150
150
150
150
150
150
150
150
150
150
150
150
150
150
150
150
150
150
150
150
150
150
150
150
150
150
150
150
150
50
50
50
50
50
50
50
50
50
50
50
50
50
50
50
50
50
50
50
50
50
50
50
50
50
50
50
50
50
50
50
50
50
50
50
50
50
50
50
50
50
50
50
50
50
50
50
50
50
50
50
50
50
50
50
50
50
50
50
50
50
50
50
50
50
50
50
50
50
50
50
50
50
50
50
50
50
50
50
150
150
150
150
150
150
150
150
150
150
150
150
150
150
150
150
150
150
150
150
150
150
150
150
150
150
150
150
150
150
150
150
150
150
150
150
300
300
300
300
300
300
300
300
300
300
300
300
300
300
300
300
300
300
300
300
300
300
300
300
300
300
300
300
300
300
300
300
300
300
300
300
300
300
300
300
300
300
300
300
300
300
300
300
300
300
300
300
300
300
300
300
300
300
300
300
300
300
300
300
300
300
300
300
300
300
300
300
300
300
300
300
300
300
300
225.019
254.685
268.645
276.292
281.008
284.178
286.446
288.143
289.457
290.499
291.34
292.03
292.6
293.075
293.472
293.805
294.082
294.315
294.507
294.667
294.797
294.903
294.988
295.056
295.108
295.15
295.18
295.204
295.219
295.232
295.238
295.244
295.247
295.25
295.25
295.252
295.253
295.255
295.257
295.261
295.263
295.268
295.272
295.278
295.282
295.288
295.292
295.296
295.296
295.295
295.288
295.277
295.259
295.233
295.194
295.145
295.078
294.995
294.888
294.757
294.596
294.401
294.166
293.885
293.548
293.147
292.667
292.092
291.397
290.55
289.503
288.184
286.481
284.208
281.033
276.313
268.66
254.695
225.024
195.391
225.076
243.602
255.517
263.562
269.258
273.463
276.671
279.187
281.198
282.835
284.18
285.298
286.23
287.011
287.665
288.214
288.67
289.051
289.364
289.622
289.829
289.998
290.129
290.234
290.312
290.373
290.415
290.449
290.469
290.485
290.493
290.501
290.502
290.507
290.507
290.511
290.512
290.519
290.523
290.532
290.538
290.55
290.558
290.571
290.579
290.59
290.595
290.6
290.595
290.586
290.564
290.531
290.477
290.407
290.307
290.179
290.013
289.805
289.545
289.23
288.844
288.381
287.825
287.163
286.373
285.432
284.304
282.948
281.301
279.279
276.753
273.535
269.319
263.612
255.558
243.633
225.096
195.401
181.469
206.626
225.172
238.615
248.463
255.833
261.477
265.896
269.42
272.278
274.621
276.564
278.182
279.541
280.679
281.637
282.438
283.109
283.664
284.125
284.499
284.805
285.046
285.24
285.387
285.503
285.585
285.65
285.691
285.724
285.741
285.756
285.76
285.767
285.767
285.773
285.773
285.78
285.784
285.795
285.803
285.819
285.831
285.85
285.864
285.883
285.895
285.91
285.914
285.914
285.899
285.873
285.823
285.753
285.647
285.509
285.32
285.082
284.776
284.4
283.934
283.371
282.69
281.879
280.908
279.756
278.383
276.75
274.791
272.432
269.559
266.019
261.584
255.925
248.539
238.675
225.217
206.656
181.484
173.86
194.788
211.845
225.307
235.847
244.135
250.721
256.016
260.328
263.872
266.815
269.272
271.337
273.072
274.538
275.768
276.804
277.666
278.386
278.974
279.459
279.846
280.158
280.398
280.589
280.728
280.836
280.908
280.964
280.995
281.021
281.03
281.04
281.04
281.046
281.044
281.051
281.052
281.064
281.071
281.09
281.103
281.128
281.147
281.174
281.195
281.221
281.236
281.252
281.25
281.242
281.208
281.155
281.065
280.94
280.76
280.528
280.219
279.832
279.344
278.748
278.018
277.143
276.092
274.845
273.361
271.605
269.52
267.043
264.078
260.512
256.18
250.863
244.256
235.948
225.388
211.905
194.828
173.88
169.184
186.823
202.114
214.925
225.483
234.144
241.256
247.128
252.002
256.077
259.497
262.384
264.821
266.888
268.632
270.109
271.345
272.383
273.239
273.948
274.518
274.983
275.344
275.631
275.844
276.01
276.123
276.21
276.261
276.301
276.317
276.332
276.332
276.337
276.332
276.337
276.335
276.345
276.35
276.368
276.382
276.409
276.431
276.466
276.493
276.531
276.558
276.591
276.607
276.622
276.612
276.588
276.526
276.435
276.288
276.089
275.812
275.455
274.991
274.415
273.697
272.827
271.772
270.516
269.018
267.25
265.158
262.694
259.781
256.334
252.233
247.332
241.433
234.295
225.609
215.025
202.189
186.873
169.209
166.055
181.207
194.865
206.796
217.023
225.701
233.039
239.237
244.487
248.937
252.724
255.945
258.693
261.027
263.014
264.69
266.105
267.282
268.263
269.059
269.711
270.223
270.632
270.938
271.177
271.344
271.47
271.547
271.605
271.631
271.652
271.651
271.655
271.645
271.647
271.638
271.645
271.644
271.661
271.671
271.699
271.721
271.76
271.792
271.84
271.877
271.927
271.962
272.001
272.018
272.029
272.006
271.96
271.862
271.718
271.498
271.203
270.8
270.287
269.629
268.82
267.822
266.624
265.183
263.48
261.463
259.098
256.319
253.066
249.246
244.763
239.482
233.251
225.882
217.174
206.916
194.955
181.266
166.085
163.829
177.086
189.345
200.376
210.113
218.608
225.961
232.308
237.771
242.475
246.518
249.997
252.978
255.533
257.707
259.555
261.105
262.405
263.471
264.347
265.043
265.6
266.022
266.35
266.583
266.757
266.866
266.946
266.982
267.009
267.007
267.009
266.993
266.988
266.971
266.971
266.963
266.974
266.978
267.003
267.022
267.062
267.096
267.15
267.196
267.259
267.31
267.372
267.417
267.464
267.482
267.487
267.447
267.372
267.226
267.016
266.703
266.287
265.729
265.024
264.132
263.045
261.718
260.137
258.255
256.046
253.452
250.434
246.917
242.835
238.092
232.592
226.208
218.818
210.287
200.514
189.448
177.155
163.863
162.175
173.964
185.057
195.25
204.454
212.655
219.902
226.262
231.828
236.676
240.895
244.548
247.71
250.423
252.75
254.719
256.384
257.762
258.902
259.816
260.55
261.112
261.548
261.859
262.09
262.236
262.339
262.387
262.418
262.414
262.411
262.386
262.372
262.343
262.333
262.313
262.315
262.31
262.329
262.341
262.379
262.411
262.467
262.516
262.589
262.652
262.734
262.802
262.881
262.939
262.995
263.015
263.014
262.953
262.842
262.638
262.344
261.917
261.353
260.607
259.673
258.506
257.094
255.392
253.382
251.012
248.254
245.048
241.35
237.086
232.194
226.585
220.182
212.893
204.651
195.407
185.174
174.042
162.214
160.908
171.542
181.668
191.12
199.798
207.667
214.73
221.027
226.603
231.524
235.838
239.614
242.89
245.726
248.152
250.22
251.95
253.393
254.56
255.504
256.231
256.794
257.198
257.495
257.682
257.81
257.868
257.9
257.89
257.877
257.837
257.81
257.765
257.741
257.705
257.695
257.676
257.684
257.686
257.717
257.742
257.796
257.845
257.921
257.991
258.086
258.172
258.278
258.368
258.471
258.546
258.617
258.641
258.634
258.55
258.395
258.121
257.726
257.159
256.416
255.447
254.246
252.762
250.986
248.869
246.392
243.504
240.176
236.349
231.983
227.012
221.388
215.042
207.933
200.018
191.295
181.798
171.629
160.951
159.916
169.629
178.959
187.766
195.96
203.487
210.337
216.513
222.052
226.978
231.344
235.179
238.537
241.441
243.943
246.059
247.841
249.299
250.485
251.407
252.122
252.636
253.008
253.24
253.391
253.454
253.481
253.456
253.426
253.366
253.317
253.251
253.206
253.15
253.121
253.084
253.078
253.065
253.085
253.099
253.146
253.188
253.263
253.333
253.435
253.531
253.655
253.77
253.908
254.03
254.163
254.265
254.358
254.393
254.383
254.274
254.068
253.707
253.187
252.452
251.496
250.267
248.759
246.922
244.747
242.185
239.221
235.803
231.909
227.486
222.503
216.91
210.681
203.779
196.202
187.958
179.102
169.724
159.964
159.129
168.101
176.774
185.033
192.79
199.997
206.618
212.656
218.112
223.016
227.381
231.25
234.638
237.59
240.119
242.272
244.056
245.521
246.673
247.569
248.215
248.675
248.956
249.127
249.187
249.197
249.146
249.086
248.993
248.913
248.815
248.743
248.659
248.606
248.546
248.52
248.487
248.491
248.489
248.525
248.555
248.624
248.688
248.789
248.886
249.02
249.149
249.311
249.465
249.646
249.811
249.989
250.132
250.259
250.315
250.307
250.17
249.899
249.43
248.756
247.817
246.61
245.083
243.233
241.011
238.412
235.391
231.935
228
223.57
218.604
213.088
206.991
200.313
193.052
185.241
176.929
168.204
159.18
158.5
166.874
175.009
182.803
190.184
197.091
203.499
209.382
214.748
219.592
223.942
227.802
231.207
234.164
236.711
238.853
240.634
242.055
243.169
243.979
244.55
244.891
245.079
245.124
245.1
245.002
244.892
244.748
244.621
244.479
244.367
244.246
244.161
244.07
244.018
243.961
243.944
243.922
243.941
243.955
244.011
244.064
244.158
244.249
244.383
244.515
244.689
244.861
245.073
245.28
245.521
245.748
245.992
246.197
246.378
246.469
246.465
246.291
245.934
245.324
244.456
243.274
241.775
239.914
237.69
235.062
232.027
228.545
224.611
220.19
215.277
209.846
203.899
197.431
190.464
183.025
175.175
166.984
158.555
157.997
165.892
173.585
180.996
188.05
194.701
200.904
206.646
211.904
216.689
220.993
224.84
228.226
231.184
233.709
235.84
237.572
238.948
239.968
240.687
241.114
241.326
241.345
241.261
241.086
240.895
240.672
240.473
240.266
240.098
239.927
239.8
239.67
239.585
239.496
239.453
239.405
239.403
239.396
239.435
239.471
239.552
239.631
239.757
239.882
240.056
240.231
240.456
240.684
240.963
241.244
241.57
241.89
242.232
242.532
242.793
242.932
242.926
242.689
242.206
241.41
240.301
238.83
237.001
234.774
232.156
229.109
225.638
221.71
217.328
212.469
207.139
201.33
195.061
188.347
181.231
173.76
166.008
158.055
157.599
165.11
172.452
179.546
186.334
192.759
198.791
204.393
209.559
214.268
218.533
222.339
225.71
228.636
231.145
233.226
234.915
236.199
237.125
237.688
237.957
237.954
237.785
237.489
237.167
236.819
236.511
236.208
235.96
235.72
235.536
235.356
235.228
235.102
235.026
234.948
234.919
234.887
234.905
234.919
234.982
235.043
235.154
235.265
235.429
235.595
235.817
236.047
236.337
236.642
237.011
237.398
237.849
238.309
238.8
239.242
239.611
239.794
239.753
239.401
238.733
237.692
236.289
234.485
232.293
229.678
226.652
223.187
219.291
214.943
210.154
204.913
199.239
193.138
186.646
179.793
172.635
165.232
157.66
157.29
164.503
171.565
178.413
184.981
191.228
197.107
202.599
207.67
212.321
216.53
220.309
223.641
226.547
229.009
231.054
232.662
233.865
234.644
235.047
235.074
234.822
234.352
233.822
233.274
232.792
232.344
231.98
231.645
231.384
231.14
230.959
230.786
230.67
230.556
230.497
230.436
230.427
230.416
230.457
230.495
230.587
230.678
230.823
230.972
231.179
231.395
231.677
231.976
232.351
232.758
233.255
233.798
234.439
235.118
235.84
236.479
236.954
237.129
236.976
236.428
235.499
234.151
232.406
230.233
227.651
224.635
221.201
217.326
213.028
208.292
203.141
197.574
191.622
185.305
178.669
171.757
164.63
157.353
157.059
164.048
170.903
177.558
183.963
190.065
195.832
201.224
206.229
210.817
214.99
218.726
222.037
224.901
227.337
229.32
230.87
231.956
232.603
232.781
232.542
231.909
231.061
230.175
229.404
228.729
228.191
227.722
227.358
227.031
226.784
226.554
226.392
226.237
226.142
226.047
226.01
225.97
225.985
225.998
226.066
226.132
226.255
226.379
226.564
226.755
227.014
227.289
227.642
228.029
228.515
229.063
229.745
230.531
231.479
232.52
233.588
234.415
234.901
234.945
234.564
233.725
232.463
230.754
228.627
226.059
223.075
219.654
215.817
211.549
206.873
201.785
196.314
190.471
184.298
177.823
171.1
164.179
157.124
156.899
163.734
170.441
176.965
183.25
189.254
194.932
200.261
205.205
209.757
213.889
217.605
220.881
223.729
226.12
228.07
229.542
230.547
231.032
231.003
230.403
229.293
227.809
226.503
225.437
224.628
223.968
223.465
223.033
222.705
222.41
222.194
221.992
221.857
221.726
221.656
221.585
221.573
221.557
221.599
221.638
221.735
221.831
221.989
222.15
222.377
222.616
222.932
223.275
223.714
224.209
224.84
225.588
226.555
227.749
229.262
230.937
232.296
233.114
233.406
233.159
232.434
231.222
229.57
227.461
224.928
221.953
218.561
214.738
210.508
205.865
200.835
195.425
189.67
183.591
177.236
170.642
163.867
156.965
156.805
163.547
170.17
176.613
182.831
188.77
194.402
199.684
204.601
209.118
213.237
216.926
220.194
223.013
225.393
227.299
228.739
229.657
230.042
229.796
228.853
227.05
224.469
222.59
221.316
220.377
219.695
219.137
218.716
218.347
218.072
217.82
217.643
217.473
217.369
217.266
217.224
217.179
217.193
217.204
217.273
217.34
217.468
217.595
217.788
217.987
218.259
218.549
218.926
219.343
219.878
220.501
221.318
222.351
223.799
225.84
228.688
230.718
231.928
232.407
232.296
231.628
230.478
228.842
226.767
224.238
221.287
217.899
214.1
209.882
205.27
200.266
194.902
189.192
183.177
176.887
170.374
163.682
156.872
156.773
163.487
170.079
176.499
182.689
188.613
194.223
199.496
204.395
208.911
213.014
216.706
219.958
222.781
225.142
227.05
228.458
229.364
229.685
229.36
228.164
225.673
220.427
218.176
216.859
215.981
215.297
214.786
214.346
214.015
213.713
213.493
213.285
213.148
213.012
212.94
212.866
212.852
212.834
212.875
212.912
213.01
213.104
213.262
213.42
213.648
213.884
214.199
214.537
214.972
215.458
216.083
216.83
217.841
219.255
221.708
227.259
230.042
231.473
232.069
231.991
231.366
230.218
228.607
226.527
224.015
221.058
217.684
213.882
209.678
205.068
200.081
194.725
189.037
183.037
176.774
170.284
163.622
156.841
213.495
212.826
212.076
211.391
210.846
210.365
209.993
209.652
209.397
209.155
208.986
208.82
208.721
208.618
208.577
208.531
208.545
208.553
208.621
208.683
208.807
208.928
209.114
209.301
209.559
209.827
210.176
210.549
211.022
211.543
212.195
212.928
213.783
214.477
207.931
207.676
207.261
206.783
206.365
205.961
205.64
205.333
205.102
204.876
204.719
204.561
204.468
204.368
204.331
204.285
204.3
204.305
204.372
204.43
204.55
204.663
204.841
205.015
205.259
205.504
205.825
206.156
206.569
207
207.51
208.013
208.505
208.751
202.91
202.782
202.544
202.211
201.902
201.575
201.309
201.04
200.837
200.631
200.49
200.342
200.257
200.162
200.128
200.084
200.099
200.103
200.168
200.221
200.335
200.439
200.607
200.766
200.991
201.211
201.498
201.783
202.134
202.477
202.866
203.206
203.507
203.614
198.179
198.099
197.955
197.719
197.493
197.231
197.017
196.785
196.612
196.428
196.304
196.167
196.092
196.003
195.974
195.931
195.948
195.95
196.012
196.059
196.167
196.262
196.417
196.56
196.764
196.957
197.21
197.449
197.742
198.01
198.307
198.539
198.738
198.791
193.642
193.585
193.495
193.321
193.157
192.947
192.777
192.581
192.436
192.273
192.166
192.043
191.977
191.895
191.871
191.831
191.848
191.849
191.908
191.95
192.05
192.134
192.276
192.402
192.586
192.751
192.972
193.169
193.413
193.619
193.849
194.01
194.152
194.179
189.257
189.212
189.154
189.022
188.903
188.734
188.601
188.435
188.317
188.174
188.084
187.973
187.918
187.843
187.824
187.785
187.804
187.803
187.859
187.895
187.988
188.061
188.191
188.299
188.463
188.603
188.794
188.955
189.157
189.316
189.496
189.61
189.717
189.73
185
184.962
184.925
184.822
184.735
184.598
184.495
184.355
184.259
184.135
184.061
183.962
183.917
183.849
183.835
183.799
183.818
183.815
183.868
183.898
183.984
184.047
184.164
184.257
184.401
184.519
184.683
184.813
184.981
185.103
185.248
185.329
185.413
185.417
180.858
180.824
180.802
180.718
180.655
180.543
180.464
180.345
180.27
180.162
180.102
180.015
179.978
179.916
179.907
179.874
179.894
179.889
179.939
179.964
180.042
180.095
180.201
180.279
180.406
180.503
180.644
180.749
180.889
180.983
181.101
181.159
181.227
181.225
176.82
176.79
176.778
176.708
176.664
176.57
176.51
176.41
176.351
176.257
176.21
176.133
176.105
176.049
176.044
176.013
176.034
176.028
176.074
176.094
176.166
176.21
176.304
176.368
176.481
176.56
176.681
176.764
176.883
176.955
177.052
177.093
177.151
177.145
172.883
172.855
172.85
172.791
172.76
172.681
172.637
172.551
172.506
172.425
172.388
172.32
172.299
172.249
172.248
172.219
172.24
172.233
172.276
172.291
172.357
172.392
172.477
172.529
172.628
172.691
172.797
172.862
172.963
173.017
173.099
173.128
173.177
173.168
169.04
169.014
169.014
168.964
168.943
168.876
168.844
168.77
168.736
168.665
168.639
168.578
168.564
168.518
168.521
168.493
168.515
168.506
168.547
168.558
168.617
168.645
168.721
168.763
168.85
168.9
168.992
169.043
169.129
169.17
169.24
169.259
169.302
169.291
165.289
165.265
165.269
165.225
165.212
165.154
165.132
165.068
165.044
164.982
164.963
164.909
164.9
164.859
164.864
164.838
164.86
164.85
164.889
164.895
164.95
164.971
165.038
165.071
165.148
165.188
165.267
165.306
165.381
165.411
165.472
165.483
165.522
165.509
161.628
161.604
161.611
161.572
161.566
161.515
161.501
161.445
161.428
161.374
161.361
161.313
161.309
161.271
161.28
161.255
161.277
161.266
161.302
161.305
161.355
161.37
161.431
161.455
161.523
161.553
161.624
161.653
161.719
161.739
161.793
161.798
161.833
161.819
158.053
158.03
158.04
158.005
158.003
157.959
157.95
157.901
157.891
157.842
157.835
157.792
157.792
157.757
157.768
157.744
157.766
157.754
157.788
157.788
157.833
157.843
157.898
157.916
157.976
157.998
158.06
158.082
158.14
158.154
158.201
158.201
158.234
158.218
154.564
154.542
154.553
154.521
154.523
154.483
154.48
154.436
154.431
154.388
154.385
154.346
154.349
154.317
154.329
154.306
154.328
154.315
154.347
154.344
154.386
154.392
154.441
154.453
154.506
154.521
154.575
154.595
154.645
154.652
154.694
154.691
154.721
154.705
151.158
151.136
151.149
151.119
151.125
151.089
151.089
151.05
151.049
151.01
151.011
150.975
150.981
150.951
150.964
150.942
150.963
150.95
150.98
150.975
151.013
151.015
151.059
151.066
151.114
151.122
151.165
151.154
151.194
151.195
151.233
151.227
151.254
151.238
147.795
147.774
147.788
147.76
147.768
147.735
147.738
147.703
147.705
147.669
147.673
147.64
147.648
147.62
147.634
147.613
147.634
147.62
147.648
147.641
147.676
147.675
147.715
147.718
147.761
147.765
147.809
147.818
147.859
147.858
147.892
147.884
147.91
147.893
144.55
144.53
144.545
144.518
144.528
144.498
144.504
144.471
144.476
144.443
144.449
144.419
144.428
144.402
144.417
144.396
144.416
144.401
144.428
144.419
144.451
144.447
144.484
144.484
144.523
144.524
144.564
144.566
144.603
144.6
144.631
144.621
144.646
144.629
141.384
141.364
141.379
141.355
141.365
141.337
141.345