# vtk DataFile Version 3.0
Mesh_1
ASCII
DATASET UNSTRUCTURED_GRID
POINTS 4540 float
-50 -50 0
-50 50 0
50 -50 0
50 50 0
-50 -48.75 0
-50 -47.5 0
-50 -46.25 0
-50 -45 0
-50 -43.75 0
-50 -42.5 0
-50 -41.25 0
-50 -40 0
-50 -38.75 0
-50 -37.5 0
-50 -36.25 0
-50 -35 0
-50 -33.75 0
-50 -32.5 0
-50 -31.25 0
-50 -30 0
-50 -28.75 0
-50 26.25 0
-50 27.5 0
-50 28.75 0
-50 30 0
-50 31.25 0
-50 32.5 0
-50 33.75 0
-50 35 0
-50 36.25 0
-50 37.5 0
-50 38.75 0
-50 40 0
-50 41.25 0
-50 42.5 0
-50 43.75 0
-50 45 0
-50 46.25 0
-50 47.5 0
-50 48.75 0
-48.75 -50 0
-47.5 -50 0
-46.25 -50 0
-45 -50 0
-43.75 -50 0
-42.5 -50 0
-41.25 -50 0
-40 -50 0
-38.75 -50 0
-37.5 -50 0
-36.25 -50 0
-35 -50 0
-33.75 -50 0
-32.5 -50 0
-31.25 -50 0
-30 -50 0
-28.75 -50 0
-27.5 -50 0
-26.25 -50 0
-25 -50 0
-23.75 -50 0
-22.5 -50 0
-21.25 -50 0
-20 -50 0
-18.75 -50 0
-17.5 -50 0
-16.25 -50 0
-15 -50 0
-13.75 -50 0
-12.5 -50 0
-11.25 -50 0
-10 -50 0
-8.75 -50 0
-7.5 -50 0
-6.25 -50 0
-5 -50 0
-3.75 -50 0
-2.5 -50 0
-1.25 -50 0
0 -50 0
1.25 -50 0
2.5 -50 0
3.75 -50 0
5 -50 0
6.25 -50 0
7.5 -50 0
8.75 -50 0
10 -50 0
11.25 -50 0
12.5 -50 0
13.75 -50 0
15 -50 0
16.25 -50 0
17.5 -50 0
18.75 -50 0
20 -50 0
21.25 -50 0
22.5 -50 0
23.75 -50 0
25 -50 0
26.25 -50 0
27.5 -50 0
28.75 -50 0
30 -50 0
31.25 -50 0
32.5 -50 0
33.75 -50 0
35 -50 0
36.25 -50 0
37.5 -50 0
38.75 -50 0
40 -50 0
41.25 -50 0
42.5 -50 0
43.75 -50 0
45 -50 0
46.25 -50 0
47.5 -50 0
48.75 -50 0
50 -48.75 0
50 -47.5 0
50 -46.25 0
50 -45 0
50 -43.75 0
50 -42.5 0
50 -41.25 0
50 -40 0
50 -38.75 0
50 -37.5 0
50 -36.25 0
50 -35 0
50 -33.75 0
50 -32.5 0
50 -31.25 0
50 -30 0
50 -28.75 0
50 26.25 0
50 27.5 0
50 28.75 0
50 30 0
50 31.25 0
50 32.5 0
50 33.75 0
50 35 0
50 36.25 0
50 37.5 0
50 38.75 0
50 40 0
50 41.25 0
50 42.5 0
50 43.75 0
50 45 0
50 46.25 0
50 47.5 0
50 48.75 0
-48.75 50 0
-47.5 50 0
-46.25 50 0
-45 50 0
-43.75 50 0
-42.5 50 0
-41.25 50 0
-40 50 0
-38.75 50 0
-37.5 50 0
-36.25 50 0
-35 50 0
-33.75 50 0
-32.5 50 0
-31.25 50 0
-30 50 0
-28.75 50 0
-27.5 50 0
-26.25 50 0
-25 50 0
-23.75 50 0
-22.5 50 0
-21.25 50 0
-20 50 0
-18.75 50 0
-17.5 50 0
-16.25 50 0
-15 50 0
-13.75 50 0
-12.5 50 0
-11.25 50 0
-10 50 0
-8.75 50 0
-7.5 50 0
-6.25 50 0
-5 50 0
-3.75 50 0
-2.5 50 0
-1.25 50 0
0 50 0
1.25 50 0
2.5 50 0
3.75 50 0
5 50 0
6.25 50 0
7.5 50 0
8.75 50 0
10 50 0
11.25 50 0
12.5 50 0
13.75 50 0
15 50 0
16.25 50 0
17.5 50 0
18.75 50 0
20 50 0
21.25 50 0
22.5 50 0
23.75 50 0
25 50 0
26.25 50 0
27.5 50 0
28.75 50 0
30 50 0
31.25 50 0
32.5 50 0
33.75 50 0
35 50 0
36.25 50 0
37.5 50 0
38.75 50 0
40 50 0
41.25 50 0
42.5 50 0
43.75 50 0
45 50 0
46.25 50 0
47.5 50 0
48.75 50 0
-48.75 48.75 0
-47.5 48.75 0
-46.25 48.75 0
-45 48.75 0
-43.75 48.75 0
-42.5 48.75 0
-41.25 48.75 0
-40 48.75 0
-38.75 48.75 0
-37.5 48.75 0
-36.25 48.75 0
-35 48.75 0
-33.75 48.75 0
-32.5 48.75 0
-31.25 48.75 0
-30 48.75 0
-28.75 48.75 0
-27.5 48.75 0
-26.25 48.75 0
-25 48.75 0
-23.75 48.75 0
-22.5 48.75 0
-21.25 48.75 0
-20 48.75 0
-18.75 48.75 0
-17.5 48.75 0
-16.25 48.75 0
-15 48.75 0
-13.75 48.75 0
-12.5 48.75 0
-11.25 48.75 0
-10 48.75 0
-8.75 48.75 0
-7.5 48.75 0
-6.25 48.75 0
-5 48.75 0
-3.75 48.75 0
-2.5 48.75 0
-1.25 48.75 0
0 48.75 0
1.25 48.75 0
2.5 48.75 0
3.75 48.75 0
5 48.75 0
6.25 48.75 0
7.5 48.75 0
8.75 48.75 0
10 48.75 0
11.25 48.75 0
12.5 48.75 0
13.75 48.75 0
15 48.75 0
16.25 48.75 0
17.5 48.75 0
18.75 48.75 0
20 48.75 0
21.25 48.75 0
22.5 48.75 0
23.75 48.75 0
25 48.75 0
26.25 48.75 0
27.5 48.75 0
28.75 48.75 0
30 48.75 0
31.25 48.75 0
32.5 48.75 0
33.75 48.75 0
35 48.75 0
36.25 48.75 0
37.5 48.75 0
38.75 48.75 0
40 48.75 0
41.25 48.75 0
42.5 48.75 0
43.75 48.75 0
45 48.75 0
46.25 48.75 0
47.5 48.75 0
48.75 48.75 0
-48.75 47.5 0
-47.5 47.5 0
-46.25 47.5 0
-45 47.5 0
-43.75 47.5 0
-42.5 47.5 0
-41.25 47.5 0
-40 47.5 0
-38.75 47.5 0
-37.5 47.5 0
-36.25 47.5 0
-35 47.5 0
-33.75 47.5 0
-32.5 47.5 0
-31.25 47.5 0
-30 47.5 0
-28.75 47.5 0
-27.5 47.5 0
-26.25 47.5 0
-25 47.5 0
-23.75 47.5 0
-22.5 47.5 0
-21.25 47.5 0
-20 47.5 0
-18.75 47.5 0
-17.5 47.5 0
-16.25 47.5 0
-15 47.5 0
-13.75 47.5 0
-12.5 47.5 0
-11.25 47.5 0
-10 47.5 0
-8.75 47.5 0
-7.5 47.5 0
-6.25 47.5 0
-5 47.5 0
-3.75 47.5 0
-2.5 47.5 0
-1.25 47.5 0
0 47.5 0
1.25 47.5 0
2.5 47.5 0
3.75 47.5 0
5 47.5 0
6.25 47.5 0
7.5 47.5 0
8.75 47.5 0
10 47.5 0
11.25 47.5 0
12.5 47.5 0
13.75 47.5 0
15 47.5 0
16.25 47.5 0
17.5 47.5 0
18.75 47.5 0
20 47.5 0
21.25 47.5 0
22.5 47.5 0
23.75 47.5 0
25 47.5 0
26.25 47.5 0
27.5 47.5 0
28.75 47.5 0
30 47.5 0
31.25 47.5 0
32.5 47.5 0
33.75 47.5 0
35 47.5 0
36.25 47.5 0
37.5 47.5 0
38.75 47.5 0
40 47.5 0
41.25 47.5 0
42.5 47.5 0
43.75 47.5 0
45 47.5 0
46.25 47.5 0
47.5 47.5 0
48.75 47.5 0
-48.75 46.25 0
-47.5 46.25 0
-46.25 46.25 0
-45 46.25 0
-43.75 46.25 0
-42.5 46.25 0
-41.25 46.25 0
-40 46.25 0
-38.75 46.25 0
-37.5 46.25 0
-36.25 46.25 0
-35 46.25 0
-33.75 46.25 0
-32.5 46.25 0
-31.25 46.25 0
-30 46.25 0
-28.75 46.25 0
-27.5 46.25 0
-26.25 46.25 0
-25 46.25 0
-23.75 46.25 0
-22.5 46.25 0
-21.25 46.25 0
-20 46.25 0
-18.75 46.25 0
-17.5 46.25 0
-16.25 46.25 0
-15 46.25 0
-13.75 46.25 0
-12.5 46.25 0
-11.25 46.25 0
-10 46.25 0
-8.75 46.25 0
-7.5 46.25 0
-6.25 46.25 0
-5 46.25 0
-3.75 46.25 0
-2.5 46.25 0
-1.25 46.25 0
0 46.25 0
1.25 46.25 0
2.5 46.25 0
3.75 46.25 0
5 46.25 0
6.25 46.25 0
7.5 46.25 0
8.75 46.25 0
10 46.25 0
11.25 46.25 0
12.5 46.25 0
13.75 46.25 0
15 46.25 0
16.25 46.25 0
17.5 46.25 0
18.75 46.25 0
20 46.25 0
21.25 46.25 0
22.5 46.25 0
23.75 46.25 0
25 46.25 0
26.25 46.25 0
27.5 46.25 0
28.75 46.25 0
30 46.25 0
31.25 46.25 0
32.5 46.25 0
33.75 46.25 0
35 46.25 0
36.25 46.25 0
37.5 46.25 0
38.75 46.25 0
40 46.25 0
41.25 46.25 0
42.5 46.25 0
43.75 46.25 0
45 46.25 0
46.25 46.25 0
47.5 46.25 0
48.75 46.25 0
-48.75 45 0
-47.5 45 0
-46.25 45 0
-45 45 0
-43.75 45 0
-42.5 45 0
-41.25 45 0
-40 45 0
-38.75 45 0
-37.5 45 0
-36.25 45 0
-35 45 0
-33.75 45 0
-32.5 45 0
-31.25 45 0
-30 45 0
-28.75 45 0
-27.5 45 0
-26.25 45 0
-25 45 0
-23.75 45 0
-22.5 45 0
-21.25 45 0
-20 45 0
-18.75 45 0
-17.5 45 0
-16.25 45 0
-15 45 0
-13.75 45 0
-12.5 45 0
-11.25 45 0
-10 45 0
-8.75 45 0
-7.5 45 0
-6.25 45 0
-5 45 0
-3.75 45 0
-2.5 45 0
-1.25 45 0
0 45 0
1.25 45 0
2.5 45 0
3.75 45 0
5 45 0
6.25 45 0
7.5 45 0
8.75 45 0
10 45 0
11.25 45 0
12.5 45 0
13.75 45 0
15 45 0
16.25 45 0
17.5 45 0
18.75 45 0
20 45 0
21.25 45 0
22.5 45 0
23.75 45 0
25 45 0
26.25 45 0
27.5 45 0
28.75 45 0
30 45 0
31.25 45 0
32.5 45 0
33.75 45 0
35 45 0
36.25 45 0
37.5 45 0
38.75 45 0
40 45 0
41.25 45 0
42.5 45 0
43.75 45 0
45 45 0
46.25 45 0
47.5 45 0
48.75 45 0
-48.75 43.75 0
-47.5 43.75 0
-46.25 43.75 0
-45 43.75 0
-43.75 43.75 0
-42.5 43.75 0
-41.25 43.75 0
-40 43.75 0
-38.75 43.75 0
-37.5 43.75 0
-36.25 43.75 0
-35 43.75 0
-33.75 43.75 0
-32.5 43.75 0
-31.25 43.75 0
-30 43.75 0
-28.75 43.75 0
-27.5 43.75 0
-26.25 43.75 0
-25 43.75 0
-23.75 43.75 0
-22.5 43.75 0
-21.25 43.75 0
-20 43.75 0
-18.75 43.75 0
-17.5 43.75 0
-16.25 43.75 0
-15 43.75 0
-13.75 43.75 0
-12.5 43.75 0
-11.25 43.75 0
-10 43.75 0
-8.75 43.75 0
-7.5 43.75 0
-6.25 43.75 0
-5 43.75 0
-3.75 43.75 0
-2.5 43.75 0
-1.25 43.75 0
0 43.75 0
1.25 43.75 0
2.5 43.75 0
3.75 43.75 0
5 43.75 0
6.25 43.75 0
7.5 43.75 0
8.75 43.75 0
10 43.75 0
11.25 43.75 0
12.5 43.75 0
13.75 43.75 0
15 43.75 0
16.25 43.75 0
17.5 43.75 0
18.75 43.75 0
20 43.75 0
21.25 43.75 0
22.5 43.75 0
23.75 43.75 0
25 43.75 0
26.25 43.75 0
27.5 43.75 0
28.75 43.75 0
30 43.75 0
31.25 43.75 0
32.5 43.75 0
33.75 43.75 0
35 43.75 0
36.25 43.75 0
37.5 43.75 0
38.75 43.75 0
40 43.75 0
41.25 43.75 0
42.5 43.75 0
43.75 43.75 0
45 43.75 0
46.25 43.75 0
47.5 43.75 0
48.75 43.75 0
-48.75 42.5 0
-47.5 42.5 0
-46.25 42.5 0
-45 42.5 0
-43.75 42.5 0
-42.5 42.5 0
-41.25 42.5 0
-40 42.5 0
-38.75 42.5 0
-37.5 42.5 0
-36.25 42.5 0
-35 42.5 0
-33.75 42.5 0
-32.5 42.5 0
-31.25 42.5 0
-30 42.5 0
-28.75 42.5 0
-27.5 42.5 0
-26.25 42.5 0
-25 42.5 0
-23.75 42.5 0
-22.5 42.5 0
-21.25 42.5 0
-20 42.5 0
-18.75 42.5 0
-17.5 42.5 0
-16.25 42.5 0
-15 42.5 0
-13.75 42.5 0
-12.5 42.5 0
-11.25 42.5 0
-10 42.5 0
-8.75 42.5 0
-7.5 42.5 0
-6.25 42.5 0
-5 42.5 0
-3.75 42.5 0
-2.5 42.5 0
-1.25 42.5 0
0 42.5 0
1.25 42.5 0
2.5 42.5 0
3.75 42.5 0
5 42.5 0
6.25 42.5 0
7.5 42.5 0
8.75 42.5 0
10 42.5 0
11.25 42.5 0
12.5 42.5 0
13.75 42.5 0
15 42.5 0
16.25 42.5 0
17.5 42.5 0
18.75 42.5 0
20 42.5 0
21.25 42.5 0
22.5 42.5 0
23.75 42.5 0
25 42.5 0
26.25 42.5 0
27.5 42.5 0
28.75 42.5 0
30 42.5 0
31.25 42.5 0
32.5 42.5 0
33.75 42.5 0
35 42.5 0
36.25 42.5 0
37.5 42.5 0
38.75 42.5 0
40 42.5 0
41.25 42.5 0
42.5 42.5 0
43.75 42.5 0
45 42.5 0
46.25 42.5 0
47.5 42.5 0
48.75 42.5 0
-48.75 41.25 0
-47.5 41.25 0
-46.25 41.25 0
-45 41.25 0
-43.75 41.25 0
-42.5 41.25 0
-41.25 41.25 0
-40 41.25 0
-38.75 41.25 0
-37.5 41.25 0
-36.25 41.25 0
-35 41.25 0
-33.75 41.25 0
-32.5 41.25 0
-31.25 41.25 0
-30 41.25 0
-28.75 41.25 0
-27.5 41.25 0
-26.25 41.25 0
-25 41.25 0
-23.75 41.25 0
-22.5 41.25 0
-21.25 41.25 0
-20 41.25 0
-18.75 41.25 0
-17.5 41.25 0
-16.25 41.25 0
-15 41.25 0
-13.75 41.25 0
-12.5 41.25 0
-11.25 41.25 0
-10 41.25 0
-8.75 41.25 0
-7.5 41.25 0
-6.25 41.25 0
-5 41.25 0
-3.75 41.25 0
-2.5 41.25 0
-1.25 41.25 0
0 41.25 0
1.25 41.25 0
2.5 41.25 0
3.75 41.25 0
5 41.25 0
6.25 41.25 0
7.5 41.25 0
8.75 41.25 0
10 41.25 0
11.25 41.25 0
12.5 41.25 0
[...]
POINT_DATA 4540
SCALARS Temperature float 1
LOOKUP_TABLE default
50
300
50
300
150
150
150
150
150
150
150
150
150
150
150
150
150
150
150
150
150
150
150
150
150
150
150
150
150
150
150
150
150
150
150
150
150
150
150
150
50
50
50
50
50
50
50
50
50
50
50
50
50
50
50
50
50
50
50
50
50
50
50
50
50
50
50
50
50
50
50
50
50
50
50
50
50
50
50
50
50
50
50
50
50
50
50
50
50
50
50
50
50
50
50
50
50
50
50
50
50
50
50
50
50
50
50
50
50
50
50
50
50
50
50
50
50
50
50
150
150
150
150
150
150
150
150
150
150
150
150
150
150
150
150
150
150
150
150
150
150
150
150
150
150
150
150
150
150
150
150
150
150
150
150
300
300
300
300
300
300
300
300
300
300
300
300
300
300
300
300
300
300
300
300
300
300
300
300
300
300
300
300
300
300
300
300
300
300
300
300
300
300
300
300
300
300
300
300
300
300
300
300
300
300
300
300
300
300
300
300
300
300
300
300
300
300
300
300
300
300
300
300
300
300
300
300
300
300
300
300
300
300
300
225.054
254.756
268.751
276.435
281.187
284.394
286.699
288.434
289.786
290.867
291.749
292.479
293.09
293.607
294.047
294.422
294.743
295.018
295.254
295.456
295.629
295.776
295.901
296.008
296.098
296.174
296.238
296.291
296.336
296.374
296.405
296.431
296.452
296.47
296.485
296.497
296.506
296.513
296.518
296.521
296.522
296.521
296.519
296.514
296.506
296.496
296.483
296.465
296.443
296.416
296.382
296.341
296.29
296.229
296.154
296.066
295.961
295.836
295.688
295.515
295.312
295.074
294.797
294.474
294.096
293.653
293.133
292.519
291.785
290.9
289.816
288.46
286.722
284.413
281.203
276.448
268.761
254.762
225.058
195.462
225.217
243.815
255.802
263.918
269.689
273.968
277.252
279.844
281.934
283.65
285.077
286.276
287.292
288.158
288.897
289.532
290.076
290.542
290.941
291.283
291.574
291.822
292.032
292.21
292.36
292.486
292.591
292.68
292.754
292.816
292.867
292.909
292.944
292.973
292.995
293.014
293.027
293.038
293.044
293.047
293.045
293.04
293.03
293.016
292.996
292.97
292.935
292.893
292.838
292.772
292.69
292.591
292.469
292.324
292.149
291.942
291.694
291.403
291.06
290.658
290.188
289.641
289.001
288.256
287.384
286.362
285.156
283.722
282
279.903
277.304
274.013
269.728
263.951
255.828
243.834
225.23
195.468
181.575
206.837
225.489
239.039
248.996
256.476
262.231
266.763
270.402
273.376
275.839
277.902
279.645
281.128
282.394
283.48
284.411
285.211
285.897
286.486
286.988
287.417
287.781
288.09
288.35
288.57
288.755
288.91
289.039
289.148
289.237
289.312
289.374
289.425
289.466
289.501
289.527
289.548
289.562
289.571
289.575
289.574
289.566
289.553
289.531
289.503
289.464
289.416
289.353
289.275
289.177
289.059
288.912
288.736
288.523
288.267
287.961
287.599
287.169
286.665
286.073
285.382
284.575
283.636
282.542
281.267
279.774
278.022
275.948
273.475
270.491
266.841
262.299
256.534
249.045
239.078
225.518
206.857
181.584
174
195.068
212.265
225.87
236.553
244.986
251.719
257.165
261.628
265.328
268.429
271.048
273.276
275.179
276.813
278.216
279.423
280.46
281.352
282.115
282.768
283.323
283.796
284.195
284.533
284.816
285.055
285.253
285.421
285.559
285.675
285.771
285.851
285.916
285.97
286.012
286.048
286.073
286.093
286.104
286.11
286.108
286.1
286.082
286.057
286.02
285.972
285.909
285.83
285.73
285.607
285.453
285.267
285.039
284.765
284.434
284.039
283.569
283.013
282.357
281.588
280.69
279.643
278.426
277.011
275.365
273.449
271.207
268.575
265.46
261.746
257.269
251.81
245.064
236.617
225.921
212.304
195.094
174.013
169.357
187.17
202.635
215.621
226.358
235.198
242.493
248.55
253.615
257.882
261.499
264.586
267.23
269.503
271.461
273.149
274.604
275.858
276.934
277.857
278.644
279.316
279.884
280.365
280.769
281.11
281.394
281.633
281.83
281.996
282.133
282.248
282.342
282.421
282.483
282.536
282.576
282.609
282.631
282.647
282.653
282.653
282.641
282.623
282.592
282.551
282.494
282.422
282.328
282.212
282.064
281.885
281.662
281.393
281.063
280.668
280.192
279.627
278.954
278.163
277.233
276.147
274.882
273.414
271.71
269.737
267.447
264.786
261.682
258.047
253.763
248.681
242.607
235.295
226.438
215.685
202.683
187.201
169.373
166.26
181.618
195.483
207.623
218.061
226.954
234.508
240.928
246.402
251.083
255.104
258.566
261.556
264.141
266.38
268.316
269.99
271.431
272.672
273.733
274.641
275.41
276.062
276.61
277.073
277.458
277.782
278.05
278.276
278.461
278.618
278.745
278.853
278.939
279.013
279.07
279.118
279.153
279.181
279.197
279.207
279.205
279.196
279.174
279.144
279.097
279.036
278.954
278.853
278.722
278.56
278.357
278.109
277.803
277.432
276.981
276.439
275.79
275.019
274.107
273.036
271.784
270.327
268.636
266.682
264.424
261.817
258.806
255.323
251.281
246.579
241.085
234.643
227.069
218.157
207.699
195.54
181.656
166.279
164.065
177.559
190.057
201.328
211.309
220.049
227.654
234.255
239.979
244.948
249.265
253.02
256.286
259.13
261.601
263.748
265.605
267.21
268.588
269.769
270.773
271.625
272.343
272.947
273.451
273.874
274.224
274.517
274.759
274.962
275.128
275.268
275.382
275.479
275.555
275.621
275.67
275.711
275.739
275.761
275.769
275.772
275.761
275.742
275.708
275.662
275.596
275.514
275.404
275.268
275.094
274.88
274.612
274.284
273.879
273.389
272.792
272.078
271.224
270.213
269.02
267.627
266.004
264.126
261.956
259.461
256.592
253.301
249.521
245.179
240.185
234.437
227.812
220.183
211.42
201.416
190.123
177.603
164.087
162.441
174.497
185.857
196.322
205.799
214.279
221.807
228.457
234.315
239.465
243.99
247.96
251.442
254.488
257.15
259.467
261.478
263.213
264.705
265.978
267.061
267.973
268.742
269.382
269.917
270.359
270.729
271.033
271.287
271.495
271.672
271.814
271.936
272.034
272.117
272.183
272.238
272.279
272.313
272.333
272.347
272.348
272.342
272.321
272.291
272.243
272.182
272.096
271.99
271.85
271.676
271.454
271.181
270.838
270.418
269.899
269.269
268.505
267.59
266.498
265.21
263.699
261.941
259.904
257.56
254.869
251.794
248.282
244.282
239.728
234.549
228.663
221.986
214.431
205.925
196.422
185.932
174.546
162.466
161.202
172.13
182.553
192.304
201.285
209.461
216.838
223.453
229.357
234.609
239.269
243.393
247.032
250.236
253.043
255.496
257.624
259.464
261.04
262.384
263.518
264.472
265.266
265.928
266.473
266.926
267.296
267.606
267.858
268.071
268.244
268.391
268.51
268.612
268.693
268.764
268.817
268.864
268.895
268.921
268.933
268.94
268.933
268.919
268.889
268.848
268.787
268.71
268.604
268.473
268.301
268.088
267.815
267.477
267.052
266.527
265.878
265.088
264.13
262.984
261.621
260.021
258.154
255.994
253.508
250.667
247.429
243.755
239.597
234.905
229.619
223.684
217.038
209.631
201.426
192.416
182.636
172.185
161.229
160.236
170.269
179.922
189.056
197.579
205.442
212.632
219.159
225.052
230.346
235.085
239.309
243.061
246.377
249.295
251.846
254.065
255.976
257.612
258.996
260.161
261.128
261.93
262.587
263.129
263.569
263.934
264.231
264.479
264.681
264.852
264.991
265.111
265.207
265.291
265.357
265.415
265.457
265.494
265.517
265.536
265.542
265.542
265.528
265.507
265.468
265.419
265.346
265.255
265.132
264.979
264.777
264.525
264.2
263.793
263.276
262.635
261.837
260.864
259.683
258.276
256.609
254.664
252.408
249.817
246.859
243.503
239.712
235.449
230.672
225.341
219.413
212.852
205.628
197.733
189.178
180.013
170.33
160.266
159.473
168.789
177.81
186.419
194.532
202.098
209.088
215.501
221.344
226.641
231.416
235.701
239.524
242.92
245.912
248.535
250.81
252.769
254.433
255.835
256.998
257.957
258.736
259.371
259.881
260.299
260.635
260.915
261.141
261.332
261.488
261.622
261.73
261.826
261.902
261.97
262.021
262.068
262.101
262.131
262.147
262.16
262.16
262.156
262.137
262.111
262.067
262.012
261.933
261.833
261.698
261.528
261.302
261.014
260.639
260.16
259.544
258.77
257.802
256.618
255.185
253.483
251.481
249.161
246.492
243.452
240.011
236.143
231.814
226.997
221.66
215.778
209.327
202.3
194.699
186.551
177.908
168.855
159.505
158.865
167.606
176.109
184.277
192.034
199.328
206.125
212.411
218.186
223.456
228.24
232.553
236.421
239.863
242.906
245.568
247.878
249.853
251.524
252.91
254.048
254.962
255.695
256.274
256.738
257.105
257.405
257.646
257.85
258.014
258.157
258.273
258.376
258.458
258.533
258.592
258.647
258.687
258.725
258.75
258.774
258.786
258.796
258.792
258.787
258.766
258.74
258.697
258.643
258.564
258.465
258.328
258.152
257.912
257.598
257.175
256.62
255.892
254.964
253.797
252.371
250.652
248.624
246.26
243.542
240.445
236.951
233.032
228.671
223.841
218.526
212.709
206.382
199.544
192.213
184.419
176.215
167.676
158.9
158.381
166.661
174.744
182.546
190
197.055
203.673
209.836
215.532
220.762
225.532
229.854
233.74
237.21
240.276
242.961
245.277
247.25
248.894
250.242
251.315
252.158
252.804
253.303
253.685
253.989
254.228
254.429
254.59
254.731
254.846
254.95
255.034
255.113
255.174
255.234
255.279
255.323
255.355
255.387
255.407
255.428
255.437
255.446
255.444
255.441
255.425
255.406
255.37
255.328
255.263
255.18
255.059
254.896
254.661
254.332
253.865
253.224
252.36
251.246
249.844
248.138
246.1
243.718
240.97
237.841
234.312
230.369
225.993
221.173
215.894
210.152
203.946
197.285
190.19
182.697
174.856
166.735
158.418
158
165.913
173.659
181.164
188.367
195.217
201.679
207.726
213.345
218.527
223.275
227.589
231.482
234.958
238.035
240.718
243.028
244.971
246.571
247.843
248.824
249.547
250.07
250.443
250.722
250.932
251.105
251.243
251.366
251.468
251.562
251.64
251.715
251.775
251.835
251.881
251.929
251.964
252.001
252.027
252.056
252.073
252.094
252.104
252.118
252.121
252.127
252.123
252.121
252.107
252.093
252.063
252.022
251.947
251.829
251.624
251.294
250.773
250.016
248.977
247.631
245.951
243.928
241.541
238.782
235.635
232.092
228.137
223.764
218.962
213.728
208.059
201.966
195.459
188.566
181.322
173.777
165.991
158.039
157.704
165.334
172.816
180.086
187.085
193.769
200.098
206.047
211.594
216.731
221.449
225.752
229.636
233.113
236.183
238.858
241.14
243.043
244.571
245.746
246.587
247.146
247.482
247.69
247.822
247.926
248.008
248.088
248.156
248.227
248.287
248.35
248.401
248.456
248.499
248.546
248.581
248.621
248.649
248.683
248.706
248.734
248.753
248.777
248.793
248.816
248.832
248.855
248.875
248.904
248.932
248.972
249.011
249.055
249.077
249.053
248.908
248.568
247.952
247.023
245.747
244.117
242.116
239.741
236.98
233.831
230.281
226.328
221.963
217.186
211.994
206.395
200.397
194.021
187.293
180.25
172.938
165.414
157.745
157.484
164.901
172.185
179.276
186.122
192.675
198.901
204.768
210.257
215.352
220.045
224.328
228.205
231.671
234.733
237.387
239.64
241.486
242.933
243.978
244.643
244.961
245.036
245.006
244.966
244.934
244.929
244.935
244.961
244.988
245.027
245.061
245.104
245.138
245.179
245.211
245.249
245.278
245.313
245.338
245.371
245.394
245.425
245.449
245.481
245.508
245.547
245.583
245.636
245.693
245.775
245.874
246.011
246.178
246.385
246.594
246.732
246.633
246.21
245.411
244.227
242.65
240.684
238.324
235.573
232.424
228.878
224.929
220.578
215.823
210.671
205.128
199.21
192.935
186.336
179.445
172.311
164.984
157.526
157.332
164.602
171.747
178.714
185.45
191.912
198.061
203.87
209.313
214.377
219.047
223.318
227.182
230.641
233.687
236.324
238.542
240.338
241.694
242.601
243.039
243.033
242.687
242.347
242.093
241.933
241.831
241.782
241.755
241.756
241.762
241.785
241.804
241.834
241.859
241.892
241.917
241.95
241.975
242.008
242.034
242.068
242.095
242.132
242.164
242.209
242.253
242.315
242.382
242.477
242.593
242.756
242.971
243.276
243.685
244.222
244.785
245.036
244.84
244.192
243.097
241.579
239.644
237.305
234.562
231.42
227.877
223.936
219.595
214.861
209.738
204.238
198.377
192.178
185.668
178.887
171.876
164.686
157.374
157.243
164.425
171.49
178.382
185.054
191.459
197.564
203.336
208.753
213.795
218.452
222.711
226.57
230.019
233.059
235.678
237.874
239.625
240.913
241.688
241.894
241.437
240.348
239.595
239.143
238.864
238.7
238.596
238.543
238.509
238.502
238.5
238.514
238.526
238.551
238.569
238.598
238.62
238.651
238.675
238.71
238.737
238.776
238.809
238.856
238.901
238.963
239.03
239.122
239.231
239.382
239.578
239.86
240.26
240.874
241.816
243.166
243.877
243.934
243.416
242.4
240.922
239.015
236.687
233.954
230.815
227.278
223.341
219.01
214.287
209.184
203.709
197.884
191.729
185.275
178.557
171.62
164.511
157.285
157.213
164.367
171.405
178.273
184.922
191.31
197.399
203.16
208.566
213.603
218.253
222.511
226.364
229.813
232.846
235.463
237.647
239.385
240.639
241.356
241.404
240.487
237.664
236.562
236.01
235.698
235.5
235.381
235.299
235.257
235.227
235.221
235.216
235.228
235.237
235.259
235.275
235.302
235.323
235.355
235.381
235.419
235.451
235.496
235.539
235.598
235.658
235.742
235.835
235.962
236.117
236.334
236.622
237.05
237.727
239.018
242.18
243.384
243.597
243.149
242.16
240.702
238.801
236.482
233.75
230.615
227.078
223.144
218.814
214.097
208.999
203.535
197.72
191.581
185.144
178.449
171.535
164.453
157.256
233.277
232.968
232.656
232.41
232.242
232.117
232.039
231.98
231.951
231.928
231.925
231.922
231.934
231.942
231.964
231.98
232.008
232.03
232.065
232.093
232.136
232.174
232.228
232.281
232.354
232.431
232.536
232.655
232.814
233.006
233.263
233.583
233.983
234.341
229.507
229.399
229.235
229.067
228.937
228.829
228.758
228.699
228.667
228.639
228.633
228.625
228.633
228.638
228.657
228.67
228.697
228.717
228.752
228.78
228.823
228.862
228.917
228.97
229.043
229.119
229.22
229.331
229.475
229.638
229.84
230.057
230.28
230.402
225.951
225.902
225.814
225.703
225.61
225.521
225.461
225.406
225.376
225.347
225.339
225.328
225.334
225.336
225.353
225.364
225.389
225.408
225.442
225.469
225.512
225.549
225.604
225.656
225.727
225.798
225.892
225.991
226.115
226.246
226.399
226.543
226.673
226.725
222.489
222.462
222.412
222.339
222.272
222.204
222.155
222.107
222.08
222.053
222.043
222.032
222.037
222.036
222.052
222.061
222.085
222.103
222.135
222.161
222.202
222.238
222.291
222.34
222.407
222.471
222.557
222.641
222.746
222.848
222.963
223.06
223.142
223.168
219.078
219.06
219.031
218.979
218.935
218.88
218.844
218.804
218.781
218.755
218.749
218.735
218.741
218.74
218.754
218.762
218.785
218.8
218.832
218.856
218.896
218.929
218.979
219.023
219.086
219.143
219.219
219.29
219.377
219.456
219.543
219.61
219.666
219.679
215.703
215.689
215.672
215.635
215.604
215.563
215.535
215.501
215.484
215.461
215.455
215.443
215.448
215.446
215.46
215.466
215.488
215.502
215.532
215.554
215.592
215.622
215.669
215.709
215.766
215.816
215.882
215.941
216.013
216.074
216.142
216.188
216.228
216.235
212.351
212.34
212.33
212.303
212.282
212.25
212.23
212.202
212.189
212.169
212.165
212.154
212.159
212.156
212.17
212.175
212.196
212.208
212.236
212.256
212.292
212.319
212.362
212.398
212.449
212.492
212.549
212.597
212.658
212.704
212.758
212.79
212.821
212.824
209.017
209.008
209.003
208.982
208.969
208.943
208.93
208.906
208.897
208.88
208.878
208.868
208.874
208.871
208.884
208.889
208.908
208.92
208.946
208.963
208.996
209.02
209.06
209.091
209.137
209.173
209.223
209.262
209.312
209.348
209.391
209.414
209.439
209.44
205.698
205.69
205.69
205.674
205.667
205.644
205.636
205.616
205.611
205.596
205.596
205.587
205.594
205.591
205.603
205.605
205.626
205.634
205.66
205.676
205.706
205.727
205.763
205.789
205.83
205.861
205.904
205.935
205.979
206.006
206.041
206.057
206.078
206.077
202.396
202.388
202.388
202.373
202.37
202.355
202.35
202.333
202.331
202.318
202.32
202.312
202.319
202.316
202.328
202.331
202.349
202.357
202.38
202.393
202.422
202.44
202.473
202.495
202.531
202.555
202.594
202.62
202.653
202.677
202.706
202.717
202.735
202.732
199.105
199.097
199.1
199.088
199.087
199.073
199.071
199.058
199.058
199.046
199.05
199.042
199.05
199.047
199.06
199.062
199.079
199.085
199.107
199.118
199.144
199.159
199.189
199.207
199.239
199.259
199.292
199.311
199.343
199.358
199.384
199.392
199.407
199.404
195.826
195.818
195.823
195.812
195.813
195.799
195.801
195.789
195.791
195.782
195.787
195.78
195.789
195.785
195.798
195.799
195.816
195.82
195.841
195.85
195.874
195.886
195.913
195.927
195.956
195.972
196.001
196.015
196.043
196.054
196.076
196.081
196.095
196.091
192.557
192.55
192.555
192.546
192.549
192.538
192.541
192.53
192.534
192.525
192.532
192.525
192.534
192.531
192.543
192.544
192.559
192.563
192.582
192.589
192.611
192.621
192.645
192.656
192.682
192.694
192.718
192.729
192.753
192.762
192.781
192.784
192.797
192.792
189.301
189.293
189.298
189.289
189.294
189.284
189.289
189.28
189.285
189.277
189.284
189.278
189.287
189.284
189.296
189.296
189.311
189.313
189.331
189.336
189.356
189.363
189.385
189.394
189.417
189.425
189.448
189.456
189.477
189.482
189.499
189.5
189.512
189.506
186.053
186.046
186.052
186.044
186.048
186.04
186.045
186.038
186.044
186.037
186.045
186.039
186.049
186.046
186.057
186.056
186.071
186.072
186.088
186.092
186.11
186.115
186.135
186.141
186.161
186.167
186.187
186.192
186.211
186.213
186.229
186.228
186.239
186.233
182.816
182.809
182.815
182.807
182.814
182.806
182.812
182.804
182.812
182.805
182.814
182.809
182.819
182.815
182.827
182.825
182.839
182.839
182.854
182.856
182.873
182.876
182.894
182.897
182.915
182.919
182.937
182.939
182.956
182.956
182.968
182.966
182.976
182.972
179.589
179.582
179.589
179.581
179.588
179.58
179.588
179.58
179.586
179.582
179.591
179.587
179.597
179.594
179.604
179.604
179.616
179.615
179.629
179.629
179.644
179.646
179.662
179.663
179.679
179.68
179.696
179.697
179.711
179.709
179.722
179.719
179.728
179.721
176.372
176.365
176.372
176.365
176.372
176.365
176.372
176.364
176.375
176.367
176.378
176.373
176.383
176.379
176.391
176.387
176.4
176.4
176.413
176.412
176.425
176.425
176.439
176.439
176.452
176.452
176.465
176.464
176.477
176.474
176.485
176.481
176.49
176.482
173.164
173.157
173.165
173.158
173.166
173.159